 ----------------------------------------------------------------------
 #p nonstd 1/38=1/1; 2/12=2,15=1,17=6,18=5,40=1/2; 3/5=16,6=1,7=10,25=2
 0,30=1/1,2,3,20; 4//1; 5/5=2,38=5/2; 8/6=3,9=120000,10=1/1,4; 9/1=1638
 4,5=1,7=46,14=1,15=10000,16=10000,17=2,33=0/12; 99/5=1,9=1/99;
 ----------------------------------------------------------------------

 0024 fs) for 1000 steps (~24 fs) Linear ramp for 1 cycle and then cons
 tant for rest of sim
 ----------------------------------------------------------------------
 Symbolic Z-matrix:
 Charge =  0 Multiplicity = 1

                          Input orientation:
 ---------------------------------------------------------------------
 Center     Atomic      Atomic             Coordinates (Angstroms)
 Number     Number       Type             X           Y           Z
 ---------------------------------------------------------------------
      1          1           0        0.000000    0.000000    0.750000
      2          1           0        0.000000    0.000000   -0.750000
 ---------------------------------------------------------------------

 SCF Done:  E(RHF) =  -1.00465133202     A.U. after    6 cycles
 E2 =    -0.4059185837D-01 EUMP2 =    -0.10452431903943D+01
 Normal termination of Gaussian DV at Tue Dec 20 08:06:44 2016.
